
Host: qm

Timers On : Sun Mar  1 14:20:51 2020
Timers Off: Sun Mar  1 14:20:52 2020

Wall Time:        0.79 seconds

                                                       Time (seconds)
Module                                       User      System        Wall        Calls

--------------------------------------------------------------------------------------

**************************************************************************************
