
Host: qm

Timers On : Sun Mar  1 14:20:51 2020
Timers Off: Sun Mar  1 14:20:52 2020

Wall Time:        0.79 seconds

                                                       Time (seconds)
Module                                       User      System        Wall        Calls

--------------------------------------------------------------------------------------

**************************************************************************************

Host: qm

Timers On : Sun Mar  1 14:26:04 2020
Timers Off: Sun Mar  1 14:26:09 2020

Wall Time:        5.17 seconds

                                                       Time (seconds)
Module                                       User      System        Wall        Calls

--------------------------------------------------------------------------------------

**************************************************************************************

Host: qm

Timers On : Sun Mar  1 14:32:23 2020
Timers Off: Sun Mar  1 14:32:24 2020

Wall Time:        0.68 seconds

                                                       Time (seconds)
Module                                       User      System        Wall        Calls

--------------------------------------------------------------------------------------

**************************************************************************************

Host: qm

Timers On : Sun Mar  1 14:33:22 2020
Timers Off: Sun Mar  1 14:33:23 2020

Wall Time:        0.68 seconds

                                                       Time (seconds)
Module                                       User      System        Wall        Calls

--------------------------------------------------------------------------------------

**************************************************************************************

Host: qm

Timers On : Sun Mar  1 14:36:33 2020
Timers Off: Sun Mar  1 14:36:34 2020

Wall Time:        0.68 seconds

                                                       Time (seconds)
Module                                       User      System        Wall        Calls

--------------------------------------------------------------------------------------

**************************************************************************************

Host: qm

Timers On : Sun Mar  1 14:38:26 2020
Timers Off: Sun Mar  1 14:38:27 2020

Wall Time:        0.70 seconds

                                                       Time (seconds)
Module                                       User      System        Wall        Calls

--------------------------------------------------------------------------------------

**************************************************************************************

Host: qm

Timers On : Sun Mar  1 14:40:07 2020
Timers Off: Sun Mar  1 14:40:08 2020

Wall Time:        0.67 seconds

                                                       Time (seconds)
Module                                       User      System        Wall        Calls

--------------------------------------------------------------------------------------

**************************************************************************************

Host: qm

Timers On : Sun Mar  1 14:40:59 2020
Timers Off: Sun Mar  1 14:41:00 2020

Wall Time:        0.67 seconds

                                                       Time (seconds)
Module                                       User      System        Wall        Calls

--------------------------------------------------------------------------------------

**************************************************************************************

Host: qm

Timers On : Sun Mar  1 14:41:52 2020
Timers Off: Sun Mar  1 14:41:58 2020

Wall Time:        5.06 seconds

                                                       Time (seconds)
Module                                       User      System        Wall        Calls

--------------------------------------------------------------------------------------

**************************************************************************************

Host: qm

Timers On : Sun Mar  1 14:42:21 2020
Timers Off: Sun Mar  1 14:42:27 2020

Wall Time:        5.15 seconds

                                                       Time (seconds)
Module                                       User      System        Wall        Calls

--------------------------------------------------------------------------------------

**************************************************************************************
